! TOUCHSTONE file generated by CST MICROWAVE STUDIO
! Date and time: Tue Oct 16 15:42:50 2018
! Project name: 16.cst
! Parameters = {Copper_W=0.017; Ex=0.6; Ground_U=31.0095; Ground_V=12.3435; Ground_Wmax=0.228; Ground_Wmin=0.211; K=5.22; Mini_Factor=0.1; S_1=0.05; Substrate_U=31.0095; Substrate_V=12.3435; Substrate_W=0.211; V_Mini=0.065; Via_V_Spacing=0.26; Via_Wmax=0.017; Via_Wmin=0.228; Via_radius=0.15; Width_Vary=0.1; Z0_Umax=15.5047; Z0_Umin=7.03756; Z12_Umax=7.03756; Z12_Umin=4.23027; Z1_Ex_Umax=7.57643; Z1_Ex_Umin=6.49868; Z1_Ex_Vmax=1.70303; Z1_Ex_Vmin=0.760162; Z1_Mini_Umax=7.2825; Z1_Mini_Umin=6.79261; Z1_Mini_Vmax=0.406587; Z1_Mini_Vmin=0.222728; Z1_Umax=8.26226; Z1_Umin=5.81285; Z1_Via_Ucentre=6.2002; Z1_Via_Vcentre=2.75133; Z1_Vmax=3.05133; Z1_Vmin=0.406587; Z23_Umax=4.23027; Z23_Umin=1.41454; Z2_Ex_Umax=4.77201; Z2_Ex_Umin=3.68852; Z2_Ex_Vmax=1.74769; Z2_Ex_Vmin=0.788343; Z2_Mini_Umax=4.47652; Z2_Mini_Umin=3.98401; Z2_Mini_Vmax=0.428588; Z2_Mini_Vmin=0.241515; Z2_Umax=5.46152; Z2_Umin=2.99902; Z2_Via_Ucentre=3.38964; Z2_Via_Vcentre=2.81955; Z2_Vmax=3.11956; Z2_Vmin=0.428588; Z34_Umax=1.41454; Z34_Umin=0; Z3_Ex_Umax=1.96347; Z3_Ex_Umin=0.865598; Z3_Ex_Vmax=1.72391; Z3_Ex_Vmin=0.765012; Z3_Mini_Umax=1.66405; Z3_Mini_Umin=1.16502; Z3_Mini_Vmax=0.405427; Z3_Mini_Vmin=0.218443; Z3_Umax=2.66212; Z3_Umin=0.16695; Z3_Via_Ucentre=0.565743; Z3_Via_Vcentre=2.79512; Z3_Vmax=3.09512; Z3_Vmin=0.405427; l0=8.46717; l1=2.8286; l12=2.80729; l2=2.87804; l23=2.81573; l3=2.87668; l34=2.82907; left_origin_U=15.5047; w0=0.445456; w1=2.44941; w12=0.51453; w2=2.4625; w23=0.48303; w3=2.49517; w34=0.436886}
! Header version: 2015
! Port assignment regex: !\s*Touchstone port\s*([0-9]+)\s*=\s*CST MWS port\s*([0-9]+)\s*\(\"(.*)\"\)(\s*mode\s*([0-9]+))?.*
! Touchstone port assignment:
! Touchstone port 1 = CST MWS port 1 ("")
! Touchstone port 2 = CST MWS port 2 ("")
# GHz S RI R 50
10                     -0.926286        0.292992      0.000599495      0.00109917      0.000599451      0.00109904        -0.926604        0.291705
10.005                 -0.925183        0.296379      0.000605544      0.00110148      0.000605409      0.00110127        -0.925505        0.295096
10.01                  -0.924067        0.299763      0.000611629      0.00110379      0.000611403      0.00110349        -0.924393        0.298483
10.015                 -0.922939        0.303143       0.00061775      0.00110608      0.000617435       0.0011057        -0.923269        0.301867
10.02                  -0.921798         0.30652      0.000623908      0.00110837      0.000623504      0.00110791        -0.922132        0.305248
10.025                 -0.920645        0.309894      0.000630102      0.00111065       0.00062961      0.00111011        -0.920982        0.308625
10.03                  -0.919478        0.313264      0.000636332      0.00111293      0.000635754       0.0011123         -0.91982        0.311999
10.035                 -0.918299        0.316631        0.0006426      0.00111519      0.000641935      0.00111449        -0.918644        0.315369
10.04                  -0.917108        0.319994      0.000648905      0.00111744      0.000648154      0.00111666        -0.917457        0.318736
10.045                 -0.915903        0.323354      0.000655247      0.00111969      0.000654411      0.00111883        -0.916256          0.3221
10.05                  -0.914686         0.32671      0.000661626      0.00112193      0.000660707        0.001121        -0.915042         0.32546
10.055                 -0.913456        0.330062      0.000668043      0.00112416       0.00066704      0.00112315        -0.913816        0.328816
10.06                  -0.912214        0.333411      0.000674498      0.00112637      0.000673413       0.0011253        -0.912577        0.332168
10.065                 -0.910958        0.336756      0.000680991      0.00112858      0.000679824      0.00112743        -0.911326        0.335517
10.07                  -0.909691        0.340097      0.000687522      0.00113078      0.000686274      0.00112956        -0.910062        0.338862
10.075                  -0.90841        0.343434      0.000694092      0.00113297      0.000692763      0.00113169        -0.908785        0.342203
10.08                  -0.907117        0.346767        0.0007007      0.00113515      0.000699292       0.0011338        -0.907495         0.34554
10.085                 -0.905811        0.350097      0.000707347      0.00113732       0.00070586       0.0011359        -0.906193        0.348873
10.09                  -0.904493        0.353422      0.000714032      0.00113948      0.000712467        0.001138        -0.904878        0.352203
10.095                 -0.903161        0.356744      0.000720757      0.00114163      0.000719115      0.00114008         -0.90355        0.355528
10.1                   -0.901818        0.360061      0.000727521      0.00114377      0.000725803      0.00114216         -0.90221        0.358849
10.105                 -0.900461        0.363374      0.000734325       0.0011459      0.000732531      0.00114422        -0.900857        0.362166
10.11                  -0.899092        0.366684      0.000741168      0.00114802      0.000739299      0.00114628        -0.899492        0.365479
10.115                 -0.897711        0.369988      0.000748052      0.00115012      0.000746108      0.00114832        -0.898113        0.368788
10.12                  -0.896317        0.373289      0.000754975      0.00115222      0.000752958      0.00115036        -0.896723        0.372092
10.125                  -0.89491        0.376585      0.000761939       0.0011543      0.000759849      0.00115238        -0.895319        0.375393
10.13                  -0.893491        0.379877      0.000768943      0.00115637      0.000766781       0.0011544        -0.893903        0.378688
10.135                 -0.892059        0.383165      0.000775987      0.00115843      0.000773755       0.0011564        -0.892475         0.38198
10.14                  -0.890614        0.386448      0.000783073      0.00116048       0.00078077      0.00115839        -0.891034        0.385267
10.145                 -0.889157        0.389726        0.0007902      0.00116251      0.000787827      0.00116037         -0.88958        0.388549
10.15                  -0.887688           0.393      0.000797367      0.00116453      0.000794926      0.00116234        -0.888114        0.391827
10.155                 -0.886206         0.39627      0.000804577      0.00116654      0.000802067       0.0011643        -0.886635          0.3951
10.16                  -0.884711        0.399534      0.000811828      0.00116854      0.000809251      0.00116625        -0.885143        0.398369
10.165                 -0.883204        0.402794      0.000819121      0.00117052      0.000816477      0.00116818         -0.88364        0.401633
10.17                  -0.881684         0.40605      0.000826455      0.00117249      0.000823746       0.0011701        -0.882123        0.404892
10.175                 -0.880152          0.4093      0.000833833      0.00117445      0.000831058      0.00117201        -0.880594        0.408147
10.18                  -0.878607        0.412546      0.000841252      0.00117639      0.000838413      0.00117391        -0.879053        0.411396
10.185                  -0.87705        0.415787      0.000848714      0.00117832      0.000845812      0.00117579        -0.877499        0.414641
10.19                  -0.875481        0.419022      0.000856219      0.00118024      0.000853254      0.00117766        -0.875932        0.417881
10.195                 -0.873899        0.422253      0.000863767      0.00118214       0.00086074      0.00117952        -0.874353        0.421116
10.2                   -0.872304        0.425479      0.000871359      0.00118402       0.00086827      0.00118136        -0.872762        0.424346
10.205                 -0.870697          0.4287      0.000878993      0.00118589      0.000875844      0.00118319        -0.871158         0.42757
10.21                  -0.869078        0.431916      0.000886672      0.00118775      0.000883463      0.00118501        -0.869542         0.43079
10.215                 -0.867446        0.435126      0.000894394      0.00118959      0.000891127      0.00118681        -0.867913        0.434004
10.22                  -0.865802        0.438332       0.00090216      0.00119141      0.000898835      0.00118859        -0.866272        0.437214
10.225                 -0.864146        0.441532      0.000909971      0.00119322      0.000906588      0.00119037        -0.864618        0.440418
10.23                  -0.862477        0.444726      0.000917826      0.00119502      0.000914386      0.00119212        -0.862952        0.443617
10.235                 -0.860796        0.447916      0.000925726      0.00119679       0.00092223      0.00119387        -0.861274         0.44681
10.24                  -0.859102          0.4511      0.000933671      0.00119855       0.00093012      0.00119559        -0.859583        0.449998
10.245                 -0.857396        0.454278      0.000941661       0.0012003      0.000938055       0.0011973         -0.85788        0.453181
10.25                  -0.855678        0.457451      0.000949696      0.00120202      0.000946037        0.001199        -0.856165        0.456358
10.255                 -0.853947        0.460619      0.000957777      0.00120373      0.000954065      0.00120067        -0.854437        0.459529
10.26                  -0.852204        0.463781      0.000965903      0.00120543      0.000962139      0.00120234        -0.852697        0.462695
10.265                 -0.850449        0.466937      0.000974075       0.0012071       0.00097026      0.00120398        -0.850944        0.465855
10.27                  -0.848682        0.470087      0.000982294      0.00120876      0.000978428      0.00120561         -0.84918         0.46901
10.275                 -0.846902        0.473232      0.000990559       0.0012104      0.000986644      0.00120722        -0.847403        0.472159
10.28                   -0.84511        0.476371      0.000998871      0.00121202      0.000994906      0.00120882        -0.845613        0.475302
10.285                 -0.843306        0.479505       0.00100723      0.00121362       0.00100322      0.00121039        -0.843812        0.478439
10.29                  -0.841489        0.482632       0.00101563      0.00121521       0.00101157      0.00121195        -0.841998        0.481571
10.295                 -0.839661        0.485753       0.00102409      0.00121677       0.00101998      0.00121349        -0.840172        0.484696
10.3                    -0.83782        0.488869       0.00103259      0.00121831       0.00102843      0.00121501        -0.838334        0.487816
10.305                 -0.835967        0.491978       0.00104114      0.00121984       0.00103694      0.00121651        -0.836483         0.49093
10.31                  -0.834102        0.495082       0.00104973      0.00122135       0.00104549        0.001218        -0.834621        0.494037
10.315                 -0.832224        0.498179       0.00105838      0.00122283       0.00105409      0.00121946        -0.832746        0.497138
10.32                  -0.830335         0.50127       0.00106707       0.0012243       0.00106274       0.0012209        -0.830859        0.500234
10.325                 -0.828433        0.504355       0.00107581      0.00122574       0.00107144      0.00122233         -0.82896        0.503323
10.33                   -0.82652        0.507434        0.0010846      0.00122716       0.00108019      0.00122373        -0.827049        0.506406
10.335                 -0.824594        0.510506       0.00109344      0.00122856       0.00108898      0.00122512        -0.825125        0.509482
10.34                  -0.822656        0.513572       0.00110232      0.00122994       0.00109783      0.00122648         -0.82319        0.512552
10.345                 -0.820706        0.516632       0.00111126       0.0012313       0.00110673      0.00122782        -0.821242        0.515616
10.35                  -0.818744        0.519685       0.00112025      0.00123264       0.00111568      0.00122914        -0.819283        0.518673
10.355                  -0.81677        0.522732       0.00112929      0.00123395       0.00112468      0.00123044        -0.817311        0.521724
10.36                  -0.814784        0.525772       0.00113837      0.00123524       0.00113373      0.00123172        -0.815327        0.524769
10.365                 -0.812786        0.528806       0.00114751      0.00123651       0.00114283      0.00123298        -0.813331        0.527806
10.37                  -0.810776        0.531833        0.0011567      0.00123776       0.00115198      0.00123421        -0.811324        0.530837
10.375                 -0.808753        0.534853       0.00116594      0.00123898       0.00116119      0.00123542        -0.809304        0.533862
10.38                  -0.806719        0.537867       0.00117523      0.00124018       0.00117044      0.00123661        -0.807272         0.53688
10.385                 -0.804674        0.540873       0.00118457      0.00124135       0.00117975      0.00123777        -0.805228        0.539891
10.39                  -0.802616        0.543873       0.00119396       0.0012425       0.00118911      0.00123891        -0.803173        0.542895
10.395                 -0.800546        0.546867       0.00120341      0.00124362       0.00119852      0.00124002        -0.801105        0.545892
10.4                   -0.798464        0.549853        0.0012129      0.00124472       0.00120799      0.00124112        -0.799026        0.548882
10.405                 -0.796371        0.552832       0.00122245       0.0012458       0.00121751      0.00124218        -0.796934        0.551866
10.41                  -0.794265        0.555804       0.00123205      0.00124684       0.00122708      0.00124322        -0.794831        0.554842
10.415                 -0.792148         0.55877       0.00124171      0.00124787       0.00123671      0.00124424        -0.792716        0.557812
10.42                  -0.790019        0.561728       0.00125141      0.00124886       0.00124639      0.00124523        -0.790589        0.560774
10.425                 -0.787878        0.564679       0.00126117      0.00124983       0.00125612      0.00124619         -0.78845        0.563729
10.43                  -0.785726        0.567622       0.00127099      0.00125077       0.00126591      0.00124713          -0.7863        0.566677
10.435                 -0.783561        0.570559       0.00128086      0.00125169       0.00127575      0.00124804        -0.784137        0.569618
10.44                  -0.781385        0.573488       0.00129078      0.00125257       0.00128564      0.00124893        -0.781963        0.572551
10.445                 -0.779197         0.57641       0.00130075      0.00125343       0.00129559      0.00124979        -0.779777        0.575477
10.45                  -0.776998        0.579325       0.00131078      0.00125426        0.0013056      0.00125061         -0.77758        0.578396
10.455                 -0.774786        0.582232       0.00132087      0.00125506       0.00131566      0.00125142         -0.77537        0.581307
10.46                  -0.772564        0.585131         0.001331      0.00125584       0.00132578      0.00125219        -0.773149        0.584211
10.465                 -0.770329        0.588024        0.0013412      0.00125658       0.00133595      0.00125293        -0.770917        0.587107
10.47                  -0.768083        0.590908       0.00135145      0.00125729       0.00134618      0.00125365        -0.768672        0.589996
10.475                 -0.765825        0.593785       0.00136175      0.00125798       0.00135647      0.00125433        -0.766416        0.592877
10.48                  -0.763555        0.596654       0.00137211      0.00125863       0.00136681      0.00125499        -0.764149         0.59575
10.485                 -0.761274        0.599516       0.00138253      0.00125925       0.00137721      0.00125561         -0.76187        0.598616
10.49                  -0.758982         0.60237         0.001393      0.00125984       0.00138766      0.00125621        -0.759579        0.601474
10.495                 -0.756678        0.605216       0.00140353       0.0012604       0.00139817      0.00125677        -0.757276        0.604324
10.5                   -0.754362        0.608054       0.00141412      0.00126093       0.00140874       0.0012573        -0.754963        0.607167
10.505                 -0.752035        0.610884       0.00142476      0.00126142       0.00141937       0.0012578        -0.752637        0.610001
10.51                  -0.749697        0.613706       0.00143546      0.00126189       0.00143006      0.00125827          -0.7503        0.612828
10.515                 -0.747347        0.616521       0.00144622      0.00126232        0.0014408      0.00125871        -0.747952        0.615646
10.52                  -0.744985        0.619327       0.00145703      0.00126271        0.0014516      0.00125911        -0.745592        0.618457
10.525                 -0.742612        0.622125       0.00146791      0.00126307       0.00146246      0.00125948        -0.743221        0.621259
10.53                  -0.740228        0.624915       0.00147884       0.0012634       0.00147338      0.00125982        -0.740839        0.624053
10.535                 -0.737832        0.627697       0.00148983      0.00126369       0.00148436      0.00126012        -0.738445        0.626839
10.54                  -0.735425        0.630471       0.00150088      0.00126395        0.0014954      0.00126038        -0.736039        0.629617
10.545                 -0.733007        0.633236       0.00151199      0.00126417        0.0015065      0.00126062        -0.733622        0.632387
10.55                  -0.730578        0.635993       0.00152315      0.00126436       0.00151766      0.00126081        -0.731194        0.635148
10.555                 -0.728137        0.638742       0.00153438      0.00126451       0.00152888      0.00126097        -0.728755        0.637901
10.56                  -0.725685        0.641482       0.00154567      0.00126463       0.00154016       0.0012611        -0.726305        0.640645
10.565                 -0.723221        0.644214       0.00155702       0.0012647        0.0015515      0.00126119        -0.723843        0.643381
10.57                  -0.720747        0.646938       0.00156842      0.00126474        0.0015629      0.00126124         -0.72137        0.646109
10.575                 -0.718261        0.649652       0.00157989      0.00126474       0.00157436      0.00126125        -0.718885        0.648828
10.58                  -0.715764        0.652359       0.00159142       0.0012647       0.00158588      0.00126123         -0.71639        0.651538
10.585                 -0.713256        0.655056       0.00160301      0.00126463       0.00159747      0.00126116        -0.713883         0.65424
10.59                  -0.710737        0.657745       0.00161466      0.00126451       0.00160912      0.00126106        -0.711365        0.656933
10.595                 -0.708207        0.660425       0.00162637      0.00126436       0.00162083      0.00126092        -0.708836        0.659617
10.6                   -0.705665        0.663097       0.00163814      0.00126416        0.0016326      0.00126074        -0.706296        0.662293
10.605                 -0.703113        0.665759       0.00164998      0.00126393       0.00164443      0.00126052        -0.703745        0.664959
10.61                   -0.70055        0.668413       0.00166188      0.00126365       0.00165633      0.00126026        -0.701183        0.667617
10.615                 -0.697975        0.671058       0.00167384      0.00126333       0.00166829      0.00125995         -0.69861        0.670266
10.62                   -0.69539        0.673693       0.00168586      0.00126297       0.00168032      0.00125961        -0.696026        0.672906
10.625                 -0.692793         0.67632       0.00169795      0.00126257       0.00169241      0.00125922        -0.693431        0.675537
10.63                  -0.690186        0.678938        0.0017101      0.00126212       0.00170456      0.00125879        -0.690825        0.678159
10.635                 -0.687568        0.681546       0.00172231      0.00126163       0.00171677      0.00125832        -0.688208        0.680772
10.64                  -0.684939        0.684146       0.00173459       0.0012611       0.00172905      0.00125781         -0.68558        0.683375
10.645                 -0.682299        0.686736       0.00174693      0.00126052        0.0017414      0.00125725        -0.682941         0.68597
10.65                  -0.679648        0.689317       0.00175934       0.0012599       0.00175381      0.00125664        -0.680292        0.688555
10.655                 -0.676987        0.691889       0.00177181      0.00125923       0.00176629      0.00125599        -0.677631        0.691131
10.66                  -0.674314        0.694451       0.00178434      0.00125852       0.00177883       0.0012553         -0.67496        0.693697
10.665                 -0.671631        0.697004       0.00179694      0.00125776       0.00179144      0.00125456        -0.672278        0.696254
10.67                  -0.668937        0.699548       0.00180961      0.00125695       0.00180411      0.00125377        -0.669585        0.698802
10.675                 -0.666233        0.702082       0.00182234       0.0012561       0.00181685      0.00125294        -0.666882         0.70134
10.68                  -0.663518        0.704606       0.00183514       0.0012552       0.00182966      0.00125206        -0.664168        0.703869
10.685                 -0.660792        0.707122         0.001848      0.00125425       0.00184253      0.00125113        -0.661443        0.706388
10.69                  -0.658056        0.709627       0.00186093      0.00125325       0.00185547      0.00125015        -0.658708        0.708898
10.695                 -0.655309        0.712123       0.00187393       0.0012522       0.00186848      0.00124912        -0.655962        0.711397
10.7                   -0.652551        0.714609         0.001887       0.0012511       0.00188156      0.00124804        -0.653205        0.713888
10.705                 -0.649783        0.717085       0.00190013      0.00124996        0.0018947      0.00124692        -0.650438        0.716368
10.71                  -0.647004        0.719552       0.00191333      0.00124876       0.00190791      0.00124574         -0.64766        0.718839
10.715                 -0.644215        0.722008       0.00192659      0.00124751       0.00192119      0.00124451        -0.644872        0.721299
10.72                  -0.641415        0.724455       0.00193993       0.0012462       0.00193454      0.00124323        -0.642073         0.72375
10.725                 -0.638605        0.726892       0.00195333      0.00124485       0.00194796      0.00124189        -0.639264        0.726191
10.73                  -0.635785        0.729319        0.0019668      0.00124344       0.00196144      0.00124051        -0.636445        0.728622
10.735                 -0.632954        0.731736       0.00198034      0.00124197         0.001975      0.00123907        -0.633615        0.731043
10.74                  -0.630113        0.734142       0.00199395      0.00124046       0.00198863      0.00123757        -0.630774        0.733454
10.745                 -0.627262        0.736539       0.00200763      0.00123889       0.00200232      0.00123602        -0.627924        0.735855
10.75                    -0.6244        0.738926       0.00202138      0.00123726       0.00201609      0.00123442        -0.625063        0.738245
10.755                 -0.621528        0.741302        0.0020352      0.00123557       0.00202993      0.00123276        -0.622192        0.740626
10.76                  -0.618646        0.743668       0.00204909      0.00123383       0.00204384      0.00123104         -0.61931        0.742996
10.765                 -0.615753        0.746024       0.00206305      0.00123204       0.00205781      0.00122927        -0.616418        0.745356
10.77                  -0.612851        0.748369       0.00207708      0.00123018       0.00207186      0.00122743        -0.613517        0.747705
10.775                 -0.609938        0.750704       0.00209118      0.00122827       0.00208599      0.00122554        -0.610605        0.750044
10.78                  -0.607015        0.753029       0.00210535      0.00122629       0.00210018      0.00122359        -0.607682        0.752373
10.785                 -0.604082        0.755343        0.0021196      0.00122426       0.00211445      0.00122158         -0.60475        0.754691
10.79                  -0.601139        0.757647       0.00213391      0.00122217       0.00212878      0.00121952        -0.601808        0.756999
10.795                 -0.598186         0.75994        0.0021483      0.00122001       0.00214319      0.00121739        -0.598856        0.759296
10.8                   -0.595223        0.762222       0.00216276       0.0012178       0.00215768      0.00121519        -0.595893        0.761582
10.805                  -0.59225        0.764494       0.00217729      0.00121552       0.00217224      0.00121294        -0.592921        0.763858
10.81                  -0.589268        0.766755        0.0021919      0.00121318       0.00218687      0.00121062        -0.589939        0.766123
10.815                 -0.586275        0.769006       0.00220658      0.00121077       0.00220157      0.00120824        -0.586946        0.768377
10.82                  -0.583272        0.771245       0.00222133       0.0012083       0.00221635       0.0012058        -0.583944        0.770621
10.825                  -0.58026        0.773474       0.00223616      0.00120577        0.0022312      0.00120329        -0.580933        0.772854
10.83                  -0.577238        0.775692       0.00225106      0.00120317       0.00224613      0.00120072        -0.577911        0.775075
10.835                 -0.574206        0.777899       0.00226603      0.00120051       0.00226113      0.00119808        -0.574879        0.777286
10.84                  -0.571164        0.780095       0.00228108      0.00119777        0.0022762      0.00119537        -0.571838        0.779486
10.845                 -0.568112        0.782279        0.0022962      0.00119497       0.00229136      0.00119259        -0.568787        0.781675
10.85                  -0.565051        0.784453        0.0023114      0.00119211       0.00230658      0.00118975        -0.565726        0.783853
10.855                  -0.56198        0.786616       0.00232668      0.00118917       0.00232189      0.00118684        -0.562656         0.78602
10.86                    -0.5589        0.788768       0.00234203      0.00118616       0.00233727      0.00118386        -0.559576        0.788175
10.865                  -0.55581        0.790908       0.00235745      0.00118309       0.00235272       0.0011808        -0.556486         0.79032
10.87                   -0.55271        0.793037       0.00237295      0.00117994       0.00236825      0.00117768        -0.553387        0.792453
10.875                 -0.549601        0.795155       0.00238853      0.00117672       0.00238386      0.00117448        -0.550279        0.794575
10.88                  -0.546483        0.797262       0.00240419      0.00117343       0.00239955      0.00117122        -0.547161        0.796685
10.885                 -0.543355        0.799357       0.00241992      0.00117006       0.00241531      0.00116788        -0.544033        0.798784
10.89                  -0.540218        0.801441       0.00243572      0.00116662       0.00243115      0.00116446        -0.540896        0.800872
10.895                 -0.537071        0.803513       0.00245161      0.00116311       0.00244707      0.00116097         -0.53775        0.802948
10.9                   -0.533915        0.805574       0.00246757      0.00115952       0.00246307       0.0011574        -0.534594        0.805013
10.905                 -0.530749        0.807623       0.00248362      0.00115585       0.00247915      0.00115376        -0.531429        0.807066
10.91                  -0.527575        0.809661       0.00249974      0.00115211        0.0024953      0.00115004        -0.528254        0.809107
10.915                 -0.524391        0.811687       0.00251593      0.00114829       0.00251153      0.00114625        -0.525071        0.811137
10.92                  -0.521198        0.813701       0.00253221      0.00114439       0.00252785      0.00114237        -0.521878        0.813156
10.925                 -0.517995        0.815704       0.00254857      0.00114041       0.00254424      0.00113842        -0.518676        0.815162
10.93                  -0.514784        0.817695         0.002565      0.00113635       0.00256071      0.00113438        -0.515465        0.817157
10.935                 -0.511563        0.819674       0.00258152      0.00113221       0.00257726      0.00113026        -0.512244         0.81914
10.94                  -0.508334        0.821641       0.00259811      0.00112798       0.00259389      0.00112607        -0.509015        0.821111