! TOUCHSTONE file generated by CST MICROWAVE STUDIO
! Date and time: Tue Oct 16 20:20:04 2018
! Project name: Standard.cst
! Parameters = {Copper_W=0.017; Ex=0.6; Ground_U=31.0095; Ground_V=12.9035; Ground_Wmax=0.228; Ground_Wmin=0.211; K=5.22; Mini_Factor=0.07; S_1=0.05; Substrate_U=31.0095; Substrate_V=12.9035; Substrate_W=0.211; V_Mini=0.21; Via_V_Spacing=0.4; Via_Wmax=0.017; Via_Wmin=0.228; Via_radius=0.15; Width_Vary=0.1; Z0_Umax=15.5047; Z0_Umin=7.03756; Z12_Umax=7.03756; Z12_Umin=4.23027; Z1_Ex_Umax=0; Z1_Ex_Umin=0; Z1_Ex_Vmax=2.20674; Z1_Ex_Vmin=1.21721; Z1_Mini_Umax=7.20901; Z1_Mini_Umin=6.8661; Z1_Mini_Vmax=0.846134; Z1_Mini_Vmin=0.222728; Z1_Umax=8.26226; Z1_Umin=5.81285; Z1_Via_Ucentre=6.2002; Z1_Via_Vcentre=2.89133; Z1_Vmax=3.19133; Z1_Vmin=0.846134; Z23_Umax=4.23027; Z23_Umin=1.41454; Z2_Ex_Umax=0; Z2_Ex_Umin=0; Z2_Ex_Vmax=2.25857; Z2_Ex_Vmin=1.25256; Z2_Mini_Umax=4.40264; Z2_Mini_Umin=4.05789; Z2_Mini_Vmax=0.875303; Z2_Mini_Vmin=0.241515; Z2_Umax=5.46152; Z2_Umin=2.99902; Z2_Via_Ucentre=3.38964; Z2_Via_Vcentre=2.95955; Z2_Vmax=3.25956; Z2_Vmin=0.875303; Z34_Umax=1.41454; Z34_Umin=0; Z3_Ex_Umax=0; Z3_Ex_Umin=0; Z3_Ex_Vmax=2.23459; Z3_Ex_Vmin=1.22903; Z3_Mini_Umax=1.5892; Z3_Mini_Umin=1.23987; Z3_Mini_Vmax=0.851946; Z3_Mini_Vmin=0.218443; Z3_Umax=2.66212; Z3_Umin=0.16695; Z3_Via_Ucentre=0.565743; Z3_Via_Vcentre=2.93512; Z3_Vmax=3.23512; Z3_Vmin=0.851946; l0=8.46717; l1=2.9686; l12=2.80729; l2=3.01804; l23=2.81573; l3=3.01668; l34=2.82907; left_origin_U=15.5047; w0=0.445456; w1=2.44941; w12=0.51453; w2=2.4625; w23=0.48303; w3=2.49517; w34=0.436886}
! Header version: 2015
! Port assignment regex: !\s*Touchstone port\s*([0-9]+)\s*=\s*CST MWS port\s*([0-9]+)\s*\(\"(.*)\"\)(\s*mode\s*([0-9]+))?.*
! Touchstone port assignment:
! Touchstone port 1 = CST MWS port 1 ("")
! Touchstone port 2 = CST MWS port 2 ("")
# GHz S RI R 50
10                     -0.864077         0.44337       0.00142185      0.00219555       0.00142048      0.00219577        -0.864447         0.44264
10.005                 -0.862378        0.446561       0.00143478       0.0021982       0.00143345      0.00219836         -0.86277        0.445841
10.01                  -0.860667        0.449746       0.00144778      0.00220082       0.00144649      0.00220091         -0.86108        0.449038
10.015                 -0.858944        0.452927       0.00146084      0.00220341       0.00145959      0.00220343        -0.859378        0.452229
10.02                  -0.857209        0.456102       0.00147397      0.00220596       0.00147275      0.00220592        -0.857664        0.455415
10.025                 -0.855462        0.459272       0.00148716      0.00220847       0.00148598      0.00220837        -0.855937        0.458596
10.03                  -0.853702        0.462436       0.00150042      0.00221096       0.00149927      0.00221078        -0.854198        0.461772
10.035                 -0.851931        0.465596       0.00151374       0.0022134       0.00151263      0.00221316        -0.852447        0.464942
10.04                  -0.850148         0.46875       0.00152713      0.00221581       0.00152605      0.00221551        -0.850683        0.468107
10.045                 -0.848352        0.471898       0.00154058      0.00221818       0.00153953      0.00221782        -0.848907        0.471267
10.05                  -0.846545        0.475041        0.0015541      0.00222052       0.00155308      0.00222009        -0.847118        0.474421
10.055                 -0.844725        0.478178       0.00156769      0.00222282        0.0015667      0.00222232        -0.845317         0.47757
10.06                  -0.842894         0.48131       0.00158134      0.00222508       0.00158038      0.00222452        -0.843504        0.480713
10.065                  -0.84105        0.484436       0.00159506       0.0022273       0.00159413      0.00222668        -0.841678         0.48385
10.07                  -0.839195        0.487556       0.00160884      0.00222948       0.00160794       0.0022288         -0.83984        0.486982
10.075                 -0.837327        0.490671       0.00162269      0.00223163       0.00162182      0.00223088        -0.837989        0.490108
10.08                  -0.835448         0.49378       0.00163661      0.00223373       0.00163577      0.00223292        -0.836127        0.493228
10.085                 -0.833556        0.496883       0.00165059       0.0022358       0.00164978      0.00223492        -0.834252        0.496343
10.09                  -0.831653         0.49998       0.00166465      0.00223783       0.00166386      0.00223689        -0.832365        0.499451
10.095                 -0.829737        0.503071       0.00167876      0.00223981         0.001678      0.00223881        -0.830465        0.502554
10.1                    -0.82781        0.506156       0.00169295      0.00224175       0.00169221      0.00224069        -0.828553        0.505651
10.105                  -0.82587        0.509235       0.00170721      0.00224366       0.00170649      0.00224254        -0.826629        0.508741
10.11                  -0.823919        0.512308       0.00172153      0.00224552       0.00172084      0.00224434        -0.824693        0.511826
10.115                 -0.821956        0.515374       0.00173592      0.00224734       0.00173526      0.00224609        -0.822745        0.514904
10.12                  -0.819981        0.518435       0.00175038      0.00224911       0.00174974      0.00224781        -0.820784        0.517977
10.125                 -0.817994        0.521489       0.00176491      0.00225085       0.00176429      0.00224948        -0.818811        0.521042
10.13                  -0.815995        0.524537       0.00177951      0.00225254       0.00177891      0.00225111        -0.816826        0.524102
10.135                 -0.813984        0.527579       0.00179417      0.00225418       0.00179359       0.0022527        -0.814829        0.527156
10.14                  -0.811962        0.530614       0.00180891      0.00225578       0.00180835      0.00225424         -0.81282        0.530202
10.145                 -0.809927        0.533642       0.00182371      0.00225734       0.00182317      0.00225574        -0.810798        0.533243
10.15                  -0.807881        0.536665       0.00183859      0.00225885       0.00183807      0.00225719        -0.808765        0.536277
10.155                 -0.805823         0.53968       0.00185353      0.00226031       0.00185303       0.0022586        -0.806719        0.539304
10.16                  -0.803753        0.542689       0.00186855      0.00226173       0.00186806      0.00225996        -0.804661        0.542325
10.165                 -0.801671        0.545692       0.00188363       0.0022631       0.00188316      0.00226128        -0.802592        0.545339
10.17                  -0.799578        0.548687       0.00189879      0.00226443       0.00189834      0.00226254         -0.80051        0.548347
10.175                 -0.797473        0.551676       0.00191401      0.00226571       0.00191358      0.00226377        -0.798416        0.551347
10.18                  -0.795356        0.554658       0.00192931      0.00226694       0.00192889      0.00226494         -0.79631        0.554341
10.185                 -0.793227        0.557634       0.00194468      0.00226812       0.00194427      0.00226606        -0.794192        0.557328
10.19                  -0.791086        0.560602       0.00196012      0.00226925       0.00195972      0.00226714        -0.792062        0.560308
10.195                 -0.788934        0.563563       0.00197563      0.00227033       0.00197524      0.00226817         -0.78992        0.563281
10.2                    -0.78677        0.566518       0.00199121      0.00227137       0.00199084      0.00226915        -0.787766        0.566247
10.205                 -0.784595        0.569465       0.00200686      0.00227235        0.0020065      0.00227008          -0.7856        0.569206
10.21                  -0.782408        0.572405       0.00202258      0.00227328       0.00202224      0.00227095        -0.783423        0.572158
10.215                 -0.780209        0.575338       0.00203838      0.00227416       0.00203805      0.00227178        -0.781233        0.575103
10.22                  -0.777999        0.578264       0.00205425      0.00227499       0.00205393      0.00227256        -0.779032         0.57804
10.225                 -0.775776        0.581183       0.00207019      0.00227576       0.00206988      0.00227328        -0.776818         0.58097
10.23                  -0.773543        0.584094       0.00208621      0.00227649        0.0020859      0.00227395        -0.774593        0.583893
10.235                 -0.771298        0.586998       0.00210229      0.00227716         0.002102      0.00227457        -0.772356        0.586808
10.24                  -0.769041        0.589894       0.00211845      0.00227777       0.00211817      0.00227513        -0.770107        0.589716
10.245                 -0.766772        0.592783       0.00213469      0.00227833       0.00213441      0.00227564        -0.767847        0.592616
10.25                  -0.764493        0.595665       0.00215099      0.00227884       0.00215072       0.0022761        -0.765574        0.595509
10.255                 -0.762201        0.598539       0.00216737      0.00227929       0.00216711       0.0022765         -0.76329        0.598395
10.26                  -0.759898        0.601405       0.00218383      0.00227968       0.00218357      0.00227685        -0.760994        0.601272
10.265                 -0.757584        0.604264       0.00220035      0.00228002        0.0022001      0.00227714        -0.758686        0.604142
10.27                  -0.755258        0.607115       0.00221696      0.00228031       0.00221671      0.00227737        -0.756367        0.607004
10.275                 -0.752921        0.609958       0.00223363      0.00228053       0.00223339      0.00227754        -0.754036        0.609859
10.28                  -0.750572        0.612794       0.00225038       0.0022807       0.00225014      0.00227766        -0.751694        0.612705
10.285                 -0.748212        0.615621       0.00226721       0.0022808       0.00226697      0.00227772        -0.749339        0.615544
10.29                  -0.745841        0.618441       0.00228411      0.00228085       0.00228388      0.00227772        -0.746974        0.618374
10.295                 -0.743458        0.621252       0.00230108      0.00228084       0.00230085      0.00227767        -0.744596        0.621197
10.3                   -0.741064        0.624056       0.00231813      0.00228077       0.00231791      0.00227755        -0.742207        0.624011
10.305                 -0.738658        0.626852       0.00233526      0.00228064       0.00233503      0.00227737        -0.739807        0.626818
10.31                  -0.736242        0.629639       0.00235246      0.00228044       0.00235224      0.00227713        -0.737395        0.629616
10.315                 -0.733814        0.632419       0.00236974      0.00228019       0.00236951      0.00227683        -0.734971        0.632406
10.32                  -0.731374         0.63519       0.00238709      0.00227987       0.00238687      0.00227647        -0.732536        0.635188
10.325                 -0.728924        0.637953       0.00240452      0.00227949        0.0024043      0.00227605         -0.73009        0.637961
10.33                  -0.726462        0.640707       0.00242202      0.00227905        0.0024218      0.00227556        -0.727632        0.640726
10.335                 -0.723989        0.643453        0.0024396      0.00227854       0.00243938      0.00227501        -0.725163        0.643483
10.34                  -0.721505        0.646191       0.00245726      0.00227797       0.00245704       0.0022744        -0.722682        0.646231
10.345                  -0.71901        0.648921         0.002475      0.00227733       0.00247477      0.00227372         -0.72019         0.64897
10.35                  -0.716503        0.651641       0.00249281      0.00227663       0.00249258      0.00227297        -0.717687        0.651701
10.355                 -0.713986        0.654354        0.0025107      0.00227585       0.00251047      0.00227216        -0.715172        0.654424
10.36                  -0.711457        0.657057       0.00252866      0.00227502       0.00252843      0.00227128        -0.712646        0.657138
10.365                 -0.708917        0.659752       0.00254671      0.00227411       0.00254647      0.00227034        -0.710109        0.659843
10.37                  -0.706367        0.662439       0.00256483      0.00227314       0.00256459      0.00226932        -0.707561        0.662539
10.375                 -0.703805        0.665116       0.00258303       0.0022721       0.00258278      0.00226824        -0.705001        0.665226
10.38                  -0.701232        0.667785       0.00260131      0.00227099       0.00260106      0.00226709        -0.702431        0.667905
10.385                 -0.698649        0.670445       0.00261966      0.00226981       0.00261941      0.00226587        -0.699849        0.670574
10.39                  -0.696054        0.673096       0.00263809      0.00226855       0.00263783      0.00226458        -0.697256        0.673235
10.395                 -0.693448        0.675738       0.00265661      0.00226723       0.00265634      0.00226322        -0.694651        0.675886
10.4                   -0.690832        0.678371        0.0026752      0.00226583       0.00267492      0.00226179        -0.692036        0.678529
10.405                 -0.688205        0.680995       0.00269387      0.00226437       0.00269359      0.00226029         -0.68941        0.681162
10.41                  -0.685566         0.68361       0.00271262      0.00226283       0.00271233      0.00225871        -0.686773        0.683786
10.415                 -0.682917        0.686215       0.00273144      0.00226121       0.00273115      0.00225706        -0.684125        0.686401
10.42                  -0.680258        0.688812       0.00275035      0.00225952       0.00275005      0.00225534        -0.681465        0.689007
10.425                 -0.677587        0.691399       0.00276934      0.00225776       0.00276903      0.00225354        -0.678795        0.691603
10.43                  -0.674906        0.693977        0.0027884      0.00225592       0.00278808      0.00225167        -0.676114         0.69419
10.435                 -0.672214        0.696546       0.00280755        0.002254       0.00280722      0.00224972        -0.673422        0.696767
10.44                  -0.669511        0.699105       0.00282677      0.00225201       0.00282644      0.00224769        -0.670719        0.699335
10.445                 -0.666797        0.701655       0.00284608      0.00224994       0.00284574      0.00224559        -0.668006        0.701893
10.45                  -0.664073        0.704195       0.00286547      0.00224779       0.00286511       0.0022434        -0.665281        0.704442
10.455                 -0.661339        0.706726       0.00288493      0.00224556       0.00288457      0.00224115        -0.662546        0.706981
10.46                  -0.658593        0.709247       0.00290448      0.00224325       0.00290411      0.00223881          -0.6598        0.709511
10.465                 -0.655837        0.711759       0.00292411      0.00224086       0.00292372      0.00223639        -0.657044        0.712031
10.47                  -0.653071         0.71426       0.00294382      0.00223839       0.00294342      0.00223389        -0.654277        0.714541
10.475                 -0.650294        0.716752       0.00296361      0.00223584        0.0029632      0.00223131        -0.651499        0.717041
10.48                  -0.647507        0.719235       0.00298348      0.00223321       0.00298306      0.00222864         -0.64871        0.719531
10.485                 -0.644709        0.721707       0.00300343      0.00223049         0.003003       0.0022259        -0.645911        0.722011
10.49                  -0.641901         0.72417       0.00302346      0.00222769       0.00302302      0.00222307        -0.643101        0.724482
10.495                 -0.639082        0.726622       0.00304358       0.0022248       0.00304312      0.00222016        -0.640281        0.726942
10.5                   -0.636253        0.729065       0.00306378      0.00222183       0.00306331      0.00221716         -0.63745        0.729392
10.505                 -0.633414        0.731498       0.00308405      0.00221877       0.00308357      0.00221408        -0.634609        0.731832
10.51                  -0.630564         0.73392       0.00310442      0.00221563       0.00310392      0.00221091        -0.631758        0.734262
10.515                 -0.627704        0.736333       0.00312486       0.0022124       0.00312435      0.00220765        -0.628896        0.736682
10.52                  -0.624834        0.738735       0.00314538      0.00220908       0.00314487      0.00220431        -0.626023        0.739092
10.525                 -0.621954        0.741127       0.00316599      0.00220567       0.00316546      0.00220087        -0.623141        0.741491
10.53                  -0.619063        0.743509       0.00318668      0.00220217       0.00318614      0.00219735        -0.620248        0.743879
10.535                 -0.616163         0.74588       0.00320746      0.00219859        0.0032069      0.00219374        -0.617345        0.746258
10.54                  -0.613252        0.748241       0.00322831      0.00219491       0.00322774      0.00219004        -0.614431        0.748626
10.545                 -0.610331        0.750592       0.00324925      0.00219113       0.00324866      0.00218625        -0.611507        0.750983
10.55                    -0.6074        0.752932       0.00327028      0.00218727       0.00326967      0.00218236        -0.608574         0.75333
10.555                 -0.604459        0.755262       0.00329138      0.00218331       0.00329076      0.00217838         -0.60563        0.755666
10.56                  -0.601508        0.757581       0.00331257      0.00217926       0.00331193      0.00217431        -0.602676        0.757991
10.565                 -0.598547        0.759889       0.00333384      0.00217511       0.00333319      0.00217014        -0.599711        0.760306
10.57                  -0.595576        0.762187        0.0033552      0.00217087       0.00335453      0.00216588        -0.596737         0.76261
10.575                 -0.592596        0.764474       0.00337664      0.00216653       0.00337596      0.00216152        -0.593753        0.764904
10.58                  -0.589605        0.766751       0.00339817      0.00216209       0.00339747      0.00215706        -0.590759        0.767186
10.585                 -0.586604        0.769016       0.00341977      0.00215756       0.00341906      0.00215251        -0.587755        0.769457
10.59                  -0.583594        0.771271       0.00344147      0.00215292       0.00344073      0.00214786        -0.584741        0.771718
10.595                 -0.580574        0.773515       0.00346324      0.00214819       0.00346249      0.00214311        -0.581717        0.773968
10.6                   -0.577544        0.775748        0.0034851      0.00214336       0.00348434      0.00213826        -0.578684        0.776206
10.605                 -0.574505         0.77797       0.00350705      0.00213842       0.00350627      0.00213331         -0.57564        0.778433
10.61                  -0.571456        0.780181       0.00352908      0.00213338       0.00352828      0.00212825        -0.572587         0.78065
10.615                 -0.568397        0.782381        0.0035512      0.00212824       0.00355038       0.0021231        -0.569524        0.782855
10.62                  -0.565328         0.78457        0.0035734        0.002123       0.00357256      0.00211784        -0.566452        0.785049
10.625                  -0.56225        0.786747       0.00359568      0.00211765       0.00359483      0.00211247        -0.563369        0.787231
10.63                  -0.559163        0.788914       0.00361805      0.00211219       0.00361718        0.002107        -0.560278        0.789403
10.635                 -0.556066        0.791069       0.00364051      0.00210663       0.00363962      0.00210143        -0.557176        0.791563
10.64                   -0.55296        0.793213       0.00366305      0.00210096       0.00366214      0.00209575        -0.554065        0.793711
10.645                 -0.549844        0.795345       0.00368567      0.00209518       0.00368475      0.00208996        -0.550945        0.795848
10.65                  -0.546718        0.797466       0.00370838       0.0020893       0.00370744      0.00208406        -0.547815        0.797974
10.655                 -0.543584        0.799576       0.00373118       0.0020833       0.00373022      0.00207805        -0.544676        0.800088
10.66                   -0.54044        0.801674       0.00375406      0.00207719       0.00375309      0.00207194        -0.541527         0.80219
10.665                 -0.537287         0.80376       0.00377703      0.00207097       0.00377604      0.00206571        -0.538369        0.804281
10.67                  -0.534124        0.805835       0.00380009      0.00206464       0.00379907      0.00205937        -0.535202         0.80636
10.675                 -0.530953        0.807899       0.00382323      0.00205819       0.00382219      0.00205291        -0.532026        0.808428
10.68                  -0.527772        0.809951       0.00384645      0.00205164        0.0038454      0.00204634         -0.52884        0.810483
10.685                 -0.524582        0.811991       0.00386977      0.00204496       0.00386869      0.00203966        -0.525645        0.812527
10.69                  -0.521383        0.814019       0.00389316      0.00203817       0.00389207      0.00203286        -0.522441        0.814559
10.695                 -0.518175        0.816035       0.00391665      0.00203126       0.00391554      0.00202595        -0.519228        0.816579
10.7                   -0.514958         0.81804       0.00394022      0.00202423       0.00393909      0.00201891        -0.516006        0.818587
10.705                 -0.511732        0.820032       0.00396388      0.00201709       0.00396273      0.00201176        -0.512774        0.820583
10.71                  -0.508497        0.822013       0.00398762      0.00200982       0.00398646      0.00200449        -0.509534        0.822567
10.715                 -0.505253        0.823982       0.00401145      0.00200244       0.00401027       0.0019971        -0.506285        0.824539
10.72                     -0.502        0.825939       0.00403537      0.00199493       0.00403417      0.00198959        -0.503027        0.826499
10.725                 -0.498739        0.827883       0.00405937       0.0019873       0.00405815      0.00198195         -0.49976        0.828446
10.73                  -0.495468        0.829816       0.00408347      0.00197954       0.00408222      0.00197419        -0.496484        0.830382
10.735                 -0.492189        0.831736       0.00410764      0.00197166       0.00410638      0.00196631          -0.4932        0.832305
10.74                  -0.488901        0.833644       0.00413191      0.00196366       0.00413063       0.0019583        -0.489906        0.834215
10.745                 -0.485605         0.83554       0.00415626      0.00195552       0.00415496      0.00195017        -0.486604        0.836114
10.75                    -0.4823        0.837424        0.0041807      0.00194726       0.00417938      0.00194191        -0.483294           0.838
10.755                 -0.478986        0.839295       0.00420522      0.00193887       0.00420388      0.00193352        -0.479975        0.839874
10.76                  -0.475664        0.841154       0.00422984      0.00193036       0.00422848        0.001925        -0.476647        0.841735
10.765                 -0.472333           0.843       0.00425454      0.00192171       0.00425316      0.00191635         -0.47331        0.843583
10.77                  -0.468994        0.844834       0.00427932      0.00191293       0.00427792      0.00190757        -0.469966        0.845419
10.775                 -0.465646        0.846655        0.0043042      0.00190401       0.00430278      0.00189865        -0.466612        0.847243
10.78                   -0.46229        0.848464       0.00432916      0.00189496       0.00432772      0.00188961        -0.463251        0.849053
10.785                 -0.458926        0.850261       0.00435421      0.00188578       0.00435275      0.00188043        -0.459881        0.850851
10.79                  -0.455553        0.852044       0.00437934      0.00187646       0.00437787      0.00187111        -0.456502        0.852637
10.795                 -0.452173        0.853815       0.00440457      0.00186701       0.00440307      0.00186166        -0.453116        0.854409
10.8                   -0.448784        0.855573       0.00442988      0.00185741       0.00442836      0.00185207        -0.449721        0.856169
10.805                 -0.445386        0.857319       0.00445528      0.00184768       0.00445374      0.00184234        -0.446318        0.857916
10.81                  -0.441981        0.859051       0.00448076      0.00183781       0.00447921      0.00183247        -0.442907         0.85965
10.815                 -0.438567        0.860771       0.00450633      0.00182779       0.00450476      0.00182246        -0.439488        0.861371
10.82                  -0.435146        0.862478       0.00453199      0.00181763       0.00453041      0.00181231         -0.43606        0.863079
10.825                 -0.431717        0.864172       0.00455774      0.00180733       0.00455613      0.00180201        -0.432625        0.864773
10.83                  -0.428279        0.865853       0.00458358      0.00179689       0.00458195      0.00179157        -0.429182        0.866455
10.835                 -0.424834         0.86752        0.0046095       0.0017863       0.00460786      0.00178099        -0.425731        0.868124
10.84                  -0.421381        0.869175       0.00463551      0.00177556       0.00463385      0.00177026        -0.422272         0.86978
10.845                  -0.41792        0.870817       0.00466161      0.00176468       0.00465993      0.00175938        -0.418805        0.871422
10.85                  -0.414451        0.872445       0.00468779      0.00175364       0.00468609      0.00174835         -0.41533        0.873051
10.855                 -0.410974        0.874061       0.00471407      0.00174246       0.00471235      0.00173718        -0.411848        0.874667
10.86                   -0.40749        0.875663       0.00474043      0.00173112       0.00473869      0.00172585        -0.408358        0.876269
10.865                 -0.403998        0.877252       0.00476687      0.00171963       0.00476512      0.00171437         -0.40486        0.877859
10.87                  -0.400499        0.878827       0.00479341      0.00170799       0.00479163      0.00170274        -0.401355        0.879434
10.875                 -0.396992        0.880389       0.00482003      0.00169619       0.00481824      0.00169095        -0.397843        0.880997
10.88                  -0.393478        0.881938       0.00484674      0.00168424       0.00484493      0.00167901        -0.394322        0.882545
10.885                 -0.389956        0.883473       0.00487354      0.00167213       0.00487171      0.00166691        -0.390795        0.884081
10.89                  -0.386426        0.884995       0.00490042      0.00165986       0.00489858      0.00165465        -0.387259        0.885602
10.895                  -0.38289        0.886503       0.00492739      0.00164743       0.00492553      0.00164223        -0.383717        0.887111
10.9                   -0.379346        0.887998       0.00495445      0.00163484       0.00495257      0.00162965        -0.380167        0.888605
10.905                 -0.375794        0.889479       0.00498159      0.00162209        0.0049797      0.00161692         -0.37661        0.890086
10.91                  -0.372236        0.890947       0.00500883      0.00160917       0.00500691      0.00160401        -0.373046        0.891553
10.915                  -0.36867          0.8924       0.00503615       0.0015961       0.00503422      0.00159095        -0.369475        0.893006
10.92                  -0.365098         0.89384       0.00506355      0.00158285        0.0050616      0.00157772        -0.365896        0.894446
10.925                 -0.361518        0.895267       0.00509105      0.00156944       0.00508908      0.00156432        -0.362311        0.895871
10.93                  -0.357931        0.896679       0.00511863      0.00155586       0.00511664      0.00155075        -0.358718        0.897283
10.935                 -0.354337        0.898078       0.00514629      0.00154211       0.00514429      0.00153702        -0.355119        0.898681
10.94                  -0.350736        0.899463       0.00517405      0.00152819       0.00517203      0.00152311        -0.351512        0.900065
10.945                 -0.347128        0.900834       0.00520189      0.00151409       0.00519986      0.00150903        -0.347899        0.901435